
#(C) 2022 by FIZ Karlsruhe - Leibniz Institute for Information Infrastructure.  All rights reserved.
data_186440-ICSD
_database_code_ICSD 186440
_audit_creation_date 2013-08-01
_chemical_name_common 'Dibismuth tetrairon nonaoxide'
_chemical_formula_structural 'Bi2 Fe4 O9'
_chemical_formula_sum 'Bi2 Fe4 O9'
_chemical_name_structure_type Al4Bi2O9
_exptl_crystal_density_diffrn 6.46
_diffrn_ambient_temperature 293.
_citation_title 'High-pressure phase transition of Bi2 Fe4 O9'
loop_
_citation_id
_citation_journal_full
_citation_year
_citation_journal_volume
_citation_page_first
_citation_page_last
_citation_journal_id_ASTM
primary 'Journal of Physics: Condensed Matter' 2012 24 1 15 JCOMEL
loop_
_citation_author_citation_id
_citation_author_name
primary 'Friedrich, Alexandra'
primary 'Biehler, Jasmin'
primary 'Morgenroth, Wolfgang'
primary 'Wiehl, Leonore'
primary 'Winkler, Bjoern'
primary 'Hanfland, Michael'
primary 'Tolkiehn, Martin'
primary 'Burianek, Manfred'
primary 'Muehlberg, Manfred'
_cell_length_a 7.9711(4)
_cell_length_b 8.4391(4)
_cell_length_c 6.0003(3)
_cell_angle_alpha 90.
_cell_angle_beta 90.
_cell_angle_gamma 90.
_cell_volume 403.63
_cell_formula_units_Z 2
_space_group_name_H-M_alt 'P b a m'
_space_group_IT_number 55
loop_
_space_group_symop_id
_space_group_symop_operation_xyz
1 'x+1/2, -y+1/2, z'
2 '-x+1/2, y+1/2, z'
3 'x, y, -z'
4 '-x, -y, -z'
5 '-x+1/2, y+1/2, -z'
6 'x+1/2, -y+1/2, -z'
7 '-x, -y, z'
8 'x, y, z'
loop_
_atom_type_symbol
_atom_type_oxidation_number
Bi3+ 3
Fe3+ 3
O2- -2
loop_
_atom_site_label
_atom_site_type_symbol
_atom_site_symmetry_multiplicity
_atom_site_Wyckoff_symbol
_atom_site_fract_x
_atom_site_fract_y
_atom_site_fract_z
_atom_site_U_iso_or_equiv
_atom_site_occupancy
Bi1 Bi3+ 4 g 0.32310(4) 0.17531(3) 0 0.0096(2) 1.
Fe1 Fe3+ 4 e 0 0 0.2583(2) 0.0077(3) 1.
Fe2 Fe3+ 4 h 0.1466(2) 0.3361(1) 0.5 0.0071(3) 1.
O1 O2- 4 g 0.3479(7) 0.4309(7) 0 0.007(1) 1.
O2 O2- 4 h 0.3667(8) 0.4052(7) 0.5 0.010(1) 1.
O3 O2- 8 i 0.1311(5) 0.2052(5) 0.2417(7) 0.0112(8) 1.
O4 O2- 2 d 0 0.5 0.5 0.023(2) 1.
#End of TTdata_186440-ICSD